generated_files/Ethanol.data - created by mBuild; units = real

1800 atoms
1600 bonds
2600 angles
2400 dihedrals
0 impropers

5 atom types
5 bond types
7 angle types
4 dihedral types

0.000000 30.000000 xlo xhi
0.000000 30.000000 ylo yhi
0.000000 30.000000 zlo zhi

Masses

1	12.010780	# opls_135
2	1.007947	# opls_140
3	15.999430	# opls_154
4	1.007947	# opls_155
5	12.010780	# opls_157

Pair Coeffs # lj
#	epsilon (kcal/mol)		sigma (Angstrom)
1	0.06600		3.50000		# opls_135
2	0.03000		2.50000		# opls_140
3	0.17000		3.12000		# opls_154
4	0.00000		10.00000		# opls_155
5	0.06600		3.50000		# opls_157

Bond Coeffs # harmonic
#	k(kcal/mol/angstrom^2)		req(angstrom)
1	340.0		1.09		# opls_135	opls_140
2	268.0		1.529		# opls_135	opls_157
3	340.0		1.09		# opls_140	opls_157
4	553.0		0.945		# opls_154	opls_155
5	320.0		1.41		# opls_154	opls_157

Angle Coeffs # harmonic
#	k(kcal/mol/rad^2)		theteq(deg)
1	33.0		107.80000	# opls_140	opls_135	opls_140
2	37.5		110.70000	# opls_140	opls_135	opls_157
3	55.0		108.50000	# opls_155	opls_154	opls_157
4	37.5		110.70000	# opls_135	opls_157	opls_140
5	50.0		109.50000	# opls_135	opls_157	opls_154
6	33.0		107.80000	# opls_140	opls_157	opls_140
7	35.0		109.50000	# opls_140	opls_157	opls_154

Dihedral Coeffs # opls
#	f1(kcal/mol)	f2(kcal/mol)	f3(kcal/mol)	f4(kcal/mol)
1	-0.00000	-0.00000		0.30000		-0.00000	# opls_140	opls_135	opls_157	opls_140
2	0.00000	-0.00000		0.46800		-0.00000	# opls_140	opls_135	opls_157	opls_154
3	-0.35600	-0.17400		0.49200		-0.00000	# opls_155	opls_154	opls_157	opls_135
4	0.00000	-0.00000		0.45000		-0.00000	# opls_155	opls_154	opls_157	opls_140

Atoms # full

1	1	1	-0.180000	4.356677	17.102382	15.087378
2	1	5	0.145000	2.993238	16.662556	14.568289
3	1	3	-0.683000	2.340403	15.870568	15.522622
4	1	2	0.060000	4.976596	16.212932	15.328456
5	1	2	0.060000	4.235468	17.721838	16.001181
6	1	2	0.060000	4.875958	17.704133	14.312003
7	1	2	0.060000	3.132799	16.064671	13.643009
8	1	2	0.060000	2.377551	17.554779	14.313099
9	1	4	0.418000	1.995022	16.490128	16.217412
10	2	1	-0.180000	3.238822	3.948113	10.775299
11	2	5	0.145000	3.811212	2.652763	11.337708
12	2	3	-0.683000	4.567383	1.989526	10.361740
13	2	2	0.060000	2.605267	3.730621	9.889384
14	2	2	0.060000	4.062055	4.631281	10.476930
15	2	2	0.060000	2.618363	4.449485	11.547710
16	2	2	0.060000	2.975198	1.992680	11.651488
17	2	2	0.060000	4.434550	2.870244	12.234593
18	2	4	0.418000	5.433850	2.470291	10.298707
19	3	1	-0.180000	3.917355	4.305049	20.680206
20	3	5	0.145000	2.396703	4.387532	20.628462
21	3	3	-0.683000	1.992493	5.636966	20.138849
22	3	2	0.060000	4.320019	5.112924	21.327305
23	3	2	0.060000	4.340245	4.410195	19.658656
24	3	2	0.060000	4.224861	3.322742	21.096710
25	3	2	0.060000	1.991104	4.257504	21.653971
26	3	2	0.060000	1.992872	3.568373	19.991162
27	3	4	0.418000	2.131455	5.615183	19.155951
28	4	1	-0.180000	15.949600	14.805087	17.027033
29	4	5	0.145000	15.482609	14.857303	15.577530
30	4	3	-0.683000	15.596663	16.160666	15.075109
31	4	2	0.060000	15.346699	15.502918	17.645967
32	4	2	0.060000	17.020913	15.090299	17.093356
33	4	2	0.060000	15.827201	13.774838	17.422720
34	4	2	0.060000	14.417454	14.547334	15.528029
35	4	2	0.060000	16.077895	14.146680	14.960357
36	4	4	0.418000	16.559542	16.307261	14.882111
37	5	1	-0.180000	22.636980	24.532842	2.930685
38	5	5	0.145000	23.522481	23.292962	2.951929
39	5	3	-0.683000	24.142766	23.158072	4.201426
40	5	2	0.060000	23.243384	25.436814	3.151247
41	5	2	0.060000	21.831183	24.439379	3.689244
42	5	2	0.060000	22.174402	24.645159	1.927505
43	5	2	0.060000	24.307107	23.393978	2.172669
44	5	2	0.060000	22.916507	22.388769	2.716384
45	5	4	0.418000	23.453502	22.807341	4.824143
46	6	1	-0.180000	18.445626	8.242373	23.624419
47	6	5	0.145000	17.290105	8.696127	22.740821
48	6	3	-0.683000	17.104244	10.080632	22.853923
49	6	2	0.060000	18.243158	8.511395	24.682801
50	6	2	0.060000	19.389372	8.728414	23.297982
51	6	2	0.060000	18.564280	7.140926	23.548923
52	6	2	0.060000	16.360786	8.183151	23.066871
53	6	2	0.060000	17.487201	8.413119	21.681901
54	6	4	0.418000	17.822418	10.508190	22.317924
55	7	1	-0.180000	16.389696	22.684666	16.133317
56	7	5	0.145000	15.435428	22.926959	17.296301
57	7	3	-0.683000	14.278091	22.150709	17.147311
58	7	2	0.060000	15.889376	22.932384	15.173185
59	7	2	0.060000	16.707608	21.620673	16.115807
60	7	2	0.060000	17.288833	23.326191	16.247158
61	7	2	0.060000	15.146874	23.999148	17.311643
62	7	2	0.060000	15.942560	22.692211	18.259610
63	7	4	0.418000	14.523632	21.223106	17.402527
64	8	1	-0.180000	26.955622	23.382855	17.910032
65	8	5	0.145000	26.879814	24.550592	16.934066
66	8	3	-0.683000	25.548141	24.801696	16.576596
67	8	2	0.060000	26.509603	22.474835	17.451659
68	8	2	0.060000	26.405689	23.628925	18.843027
69	8	2	0.060000	28.016624	23.174813	18.162925
70	8	2	0.060000	27.453588	24.295858	16.018108
71	8	2	0.060000	27.340293	25.456872	17.388892
72	8	4	0.418000	25.133104	25.276690	17.343407
73	9	1	-0.180000	13.586511	14.237506	8.006894
74	9	5	0.145000	13.831852	14.047835	6.515017
75	9	3	-0.683000	13.049689	12.994466	6.022244
76	9	2	0.060000	13.826120	13.300887	8.553584
77	9	2	0.060000	12.523819	14.504617	8.187976
78	9	2	0.060000	14.232618	15.054585	8.391460
79	9	2	0.060000	14.902854	13.804356	6.351435
80	9	2	0.060000	13.605262	14.991820	5.969306
81	9	4	0.418000	12.124753	13.344675	5.934369
82	10	1	-0.180000	27.080822	10.039061	6.966919
83	10	5	0.145000	27.300200	8.718119	6.239699
84	10	3	-0.683000	27.816249	7.756949	7.119492
85	10	2	0.060000	28.038504	10.398250	7.399780
86	10	2	0.060000	26.338100	9.907202	7.782047
87	10	2	0.060000	26.699827	10.800078	6.253716
88	10	2	0.060000	28.027127	8.874287	5.414911
89	10	2	0.060000	26.342479	8.365958	5.793597
90	10	4	0.418000	27.056338	7.446156	7.677897
91	11	1	-0.180000	8.544918	17.569398	18.510449
92	11	5	0.145000	7.161890	16.986428	18.247304
93	11	3	-0.683000	7.152380	16.281012	17.036317
94	11	2	0.060000	8.837885	18.243627	17.677909
95	11	2	0.060000	9.292533	16.752978	18.599802
96	11	2	0.060000	8.532411	18.149913	19.456921
97	11	2	0.060000	6.424967	17.814694	18.184012
98	11	2	0.060000	6.862755	16.321921	19.089445
99	11	4	0.418000	7.602506	15.413158	17.209782
100	12	1	-0.180000	21.106291	15.916325	11.681133
101	12	5	0.145000	22.617346	16.093699	11.765489
102	12	3	-0.683000	23.077399	16.872727	10.695135
103	12	2	0.060000	20.833295	15.434712	10.718292
104	12	2	0.060000	20.601641	16.903110	11.752106
105	12	2	0.060000	20.757699	15.273868	12.517013
106	12	2	0.060000	23.103133	15.096372	11.716121
107	12	2	0.060000	22.891461	16.563388	12.737346
108	12	4	0.418000	22.847484	17.814448	10.910017
109	13	1	-0.180000	18.362313	19.879903	18.342848
110	13	5	0.145000	17.176238	18.924354	18.297937
111	13	3	-0.683000	17.603587	17.631967	17.964321
112	13	2	0.060000	18.876462	19.894083	17.358476
113	13	2	0.060000	19.081406	19.559105	19.126078
114	13	2	0.060000	18.007950	20.905360	18.579127
115	13	2	0.060000	16.458014	19.273407	17.526313
116	13	2	0.060000	16.652594	18.921678	19.280811
117	13	4	0.418000	18.017286	17.249828	18.782060
118	14	1	-0.180000	26.373364	3.752407	20.343554
119	14	5	0.145000	25.164262	3.830785	21.267564
120	14	3	-0.683000	24.246261	2.818554	20.956350
121	14	2	0.060000	26.049853	3.847754	19.285353
122	14	2	0.060000	26.895632	2.781793	20.479930
123	14	2	0.060000	27.079211	4.576258	20.580222
124	14	2	0.060000	24.668868	4.815619	21.134249
125	14	2	0.060000	25.490991	3.749687	22.329131
126	14	4	0.418000	24.613677	1.976505	21.332958
127	15	1	-0.180000	19.542511	10.543477	3.882356
128	15	5	0.145000	20.865908	11.296735	3.826780
129	15	3	-0.683000	21.391406	11.264113	2.527942
130	15	2	0.060000	19.690569	9.490758	3.560798
131	15	2	0.060000	18.799077	11.028331	3.214766
132	15	2	0.060000	19.150885	10.551226	4.921362
133	15	2	0.060000	21.588547	10.812165	4.516758
134	15	2	0.060000	20.719431	12.348221	4.163194
135	15	4	0.418000	20.872187	11.921611	1.995042
136	16	1	-0.180000	9.095993	3.162104	4.073264
137	16	5	0.145000	9.140195	3.500754	2.588262
138	16	3	-0.683000	10.060554	4.530519	2.350118
139	16	2	0.060000	8.816134	4.062465	4.660263
140	16	2	0.060000	10.089687	2.799555	4.411770
141	16	2	0.060000	8.343002	2.366143	4.253297
142	16	2	0.060000	8.133736	3.838925	2.263043
143	16	2	0.060000	9.406663	2.593987	1.999177
144	16	4	0.418000	10.963488	4.119687	2.392565
145	17	1	-0.180000	23.482098	23.395916	26.191308
146	17	5	0.145000	24.119811	22.012713	26.147295
147	17	3	-0.683000	23.860288	21.395032	24.916316
148	17	2	0.060000	22.385824	23.314233	26.033031
149	17	2	0.060000	23.918240	24.042579	25.400700
150	17	2	0.060000	23.669484	23.863036	27.181080
151	17	2	0.060000	23.688732	21.388381	26.958138
152	17	2	0.060000	25.216909	22.094056	26.320537
153	17	4	0.418000	24.469828	21.814426	24.254165
154	18	1	-0.180000	11.678614	25.024878	19.655844
155	18	5	0.145000	11.392166	25.812965	20.928138
156	18	3	-0.683000	10.694117	26.990063	20.625884
157	18	2	0.060000	12.270858	25.644913	18.949911
158	18	2	0.060000	10.725977	24.726292	19.169238
159	18	2	0.060000	12.256863	24.110130	19.904492
160	18	2	0.060000	12.354393	26.082634	21.412373
161	18	2	0.060000	10.810787	25.185584	21.641331
162	18	4	0.418000	9.753374	26.725174	20.450634
163	19	1	-0.180000	19.062626	26.001364	2.795075
164	19	5	0.145000	19.842911	27.285215	3.049529
165	19	3	-0.683000	19.230471	28.035422	4.062593
166	19	2	0.060000	18.017320	26.242555	2.507499
167	19	2	0.060000	19.053914	25.372300	3.710311
168	19	2	0.060000	19.540333	25.430163	1.971370
169	19	2	0.060000	19.860504	27.889818	2.118276
170	19	2	0.060000	20.894775	27.042965	3.323666
171	19	4	0.418000	19.464556	27.596465	4.921893
172	20	1	-0.180000	10.879511	25.192918	4.902901
173	20	5	0.145000	10.581291	24.116219	5.939072
174	20	3	-0.683000	9.362398	24.379349	6.578801
175	20	2	0.060000	10.916106	26.190067	5.390643
176	20	2	0.060000	10.091782	25.197789	4.120012
177	20	2	0.060000	11.860472	24.989823	4.423911
178	20	2	0.060000	11.390135	24.110766	6.699880
179	20	2	0.060000	10.559149	23.115106	5.451696
180	20	4	0.418000	8.645896	24.117042	5.943432
181	21	1	-0.180000	13.990052	9.742494	7.493842
182	21	5	0.145000	15.388682	10.293474	7.743077
183	21	3	-0.683000	16.285328	9.248261	8.003361
184	21	2	0.060000	13.647560	9.161561	8.376314
185	21	2	0.060000	13.993474	9.082347	6.600731
186	21	2	0.060000	13.283476	10.580808	7.317936
187	21	2	0.060000	15.361142	10.968308	8.624512
188	21	2	0.060000	15.725533	10.887956	6.863659
189	21	4	0.418000	16.491385	8.826502	7.128413
190	22	1	-0.180000	18.921821	12.259124	17.924173
191	22	5	0.145000	18.535743	12.104598	16.458250
192	22	3	-0.683000	18.675220	13.326323	15.785847
193	22	2	0.060000	18.284369	13.030627	18.405814
194	22	2	0.060000	19.987325	12.560873	18.008448
195	22	2	0.060000	18.779457	11.292900	18.452479
196	22	2	0.060000	17.475497	11.780734	16.394398
197	22	2	0.060000	19.165515	11.320602	15.979720
198	22	4	0.418000	19.647058	13.453682	15.627152
199	23	1	-0.180000	20.352661	5.034099	21.326560
200	23	5	0.145000	21.028626	5.339138	19.995437
201	23	3	-0.683000	22.228027	4.623035	19.882193
202	23	2	0.060000	21.030575	5.296934	22.166136
203	23	2	0.060000	20.097955	3.954768	21.386754
204	23	2	0.060000	19.419363	5.628820	21.417251
205	23	2	0.060000	21.254717	6.425090	19.943678
206	23	2	0.060000	20.342759	5.088934	19.154463
207	23	4	0.418000	21.980091	3.686751	19.663620
208	24	1	-0.180000	23.250030	7.053182	15.658915
209	24	5	0.145000	22.370972	7.047142	16.903537
210	24	3	-0.683000	21.115348	6.497548	16.611054
211	24	2	0.060000	22.760701	7.637195	14.850815
212	24	2	0.060000	23.420203	6.013699	15.306822
213	24	2	0.060000	24.230683	7.517111	15.895668
214	24	2	0.060000	22.230922	8.091486	17.253991
215	24	2	0.060000	22.868894	6.473617	17.718028
216	24	4	0.418000	21.240110	5.513629	16.564035
217	25	1	-0.180000	20.206295	26.326478	7.871633
218	25	5	0.145000	20.701003	26.204159	9.307657
219	25	3	-0.683000	20.555814	24.886632	9.762888
220	25	2	0.060000	19.140494	26.020313	7.809414
221	25	2	0.060000	20.812084	25.679041	7.202829
222	25	2	0.060000	20.299091	27.379671	7.532316
223	25	2	0.060000	20.099614	26.874772	9.957038
224	25	2	0.060000	21.765482	26.525127	9.371827
225	25	4	0.418000	21.291429	24.361545	9.351758
226	26	1	-0.180000	27.193589	25.434075	2.985437
227	26	5	0.145000	27.041329	26.936402	2.781241
228	26	3	-0.683000	26.660801	27.555333	3.979704
229	26	2	0.060000	26.237176	25.000854	3.347559
230	26	2	0.060000	27.992409	25.229049	3.729283
231	26	2	0.060000	27.466429	24.951429	2.023370
232	26	2	0.060000	26.255620	27.121200	2.018616
233	26	2	0.060000	27.996400	27.367698	2.404313
234	26	4	0.418000	27.476131	27.606672	4.544040
235	27	1	-0.180000	23.274484	6.918189	3.862413
236	27	5	0.145000	22.139269	6.647648	2.882637
237	27	3	-0.683000	22.503136	5.637837	1.981486
238	27	2	0.060000	24.190460	7.216749	3.309793
239	27	2	0.060000	23.488769	6.006522	4.459406
240	27	2	0.060000	22.985923	7.739278	4.551984
241	27	2	0.060000	21.923884	7.575357	2.311628
242	27	2	0.060000	21.217211	6.362454	3.438269
243	27	4	0.418000	22.427092	4.778219	2.472555
244	28	1	-0.180000	22.783606	2.897208	5.278797
245	28	5	0.145000	23.897217	3.086476	6.301496
246	28	3	-0.683000	24.736473	1.964235	6.321887
247	28	2	0.060000	22.193709	1.988408	5.523016
248	28	2	0.060000	23.214473	2.790500	4.260749
249	28	2	0.060000	22.109083	3.779134	5.292535
250	28	2	0.060000	23.447189	3.214313	7.308581
251	28	2	0.060000	24.479174	4.005884	6.064289
252	28	4	0.418000	25.317036	2.029298	5.519025
253	29	1	-0.180000	25.860738	16.439186	9.724010
254	29	5	0.145000	27.249640	16.066104	9.220397
255	29	3	-0.683000	27.520094	16.716681	8.008872
256	29	2	0.060000	25.095471	16.163421	8.967795
257	29	2	0.060000	25.805754	17.531334	9.918026
258	29	2	0.060000	25.646565	15.895580	10.668248
259	29	2	0.060000	27.292804	14.969027	9.054126
260	29	2	0.060000	28.015001	16.329631	9.985270
261	29	4	0.418000	27.738264	17.658571	8.234969
262	30	1	-0.180000	25.891258	15.569103	17.699743
263	30	5	0.145000	27.325270	15.070337	17.828999
264	30	3	-0.683000	27.497378	14.389732	19.041990
265	30	2	0.060000	25.644694	16.241399	18.548720
266	30	2	0.060000	25.187194	14.710184	17.697427
267	30	2	0.060000	25.774851	16.131301	16.749298
268	30	2	0.060000	28.015408	15.939981	17.806319
269	30	2	0.060000	27.576431	14.407912	16.969718
270	30	4	0.418000	27.083333	13.494685	18.926524
271	31	1	-0.180000	17.263843	27.062827	26.639206
272	31	5	0.145000	18.681418	27.386440	27.094860
273	31	3	-0.683000	19.380247	26.207668	27.388675
274	31	2	0.060000	16.730647	26.494531	27.430584
275	31	2	0.060000	17.290992	26.456365	25.709194
276	31	2	0.060000	16.711399	28.004702	26.437611
277	31	2	0.060000	18.634192	28.011589	28.011400
278	31	2	0.060000	19.210586	27.968798	26.306765
279	31	4	0.418000	19.637438	25.805607	26.518001
280	32	1	-0.180000	24.001985	20.756370	11.357137
281	32	5	0.145000	23.677001	22.220435	11.626884
282	32	3	-0.683000	24.195965	23.030877	10.608036
283	32	2	0.060000	25.101727	20.617807	11.287088
284	32	2	0.060000	23.531244	20.429978	10.405651
285	32	2	0.060000	23.611569	20.127726	12.184993
286	32	2	0.060000	24.135888	22.522182	12.592004
287	32	2	0.060000	22.574858	22.356024	11.711428
288	32	4	0.418000	23.590010	22.929257	9.828057
289	33	1	-0.180000	2.842288	25.525530	4.405720
290	33	5	0.145000	3.712870	24.496892	3.694482
291	33	3	-0.683000	2.946637	23.754295	2.785841
292	33	2	0.060000	2.011533	25.016684	4.939067
293	33	2	0.060000	2.419543	26.241911	3.669826
294	33	2	0.060000	3.453503	26.087211	5.143210
295	33	2	0.060000	4.144717	23.804231	4.447353
296	33	2	0.060000	4.553938	25.006643	3.171977
297	33	4	0.418000	2.801586	24.336351	1.994611
298	34	1	-0.180000	4.712546	4.227722	3.046918
299	34	5	0.145000	4.380325	2.787493	2.676468
300	34	3	-0.683000	5.446381	2.205528	1.977160
301	34	2	0.060000	4.929018	4.815781	2.129931
302	34	2	0.060000	5.598483	4.255013	3.716115
303	34	2	0.060000	3.850003	4.686943	3.574268
304	34	2	0.060000	3.479682	2.778350	2.026972
305	34	2	0.060000	4.149214	2.202114	3.595257
306	34	4	0.418000	6.141123	1.984544	2.651233
307	35	1	-0.180000	8.315376	3.769319	8.006416
308	35	5	0.145000	7.481948	5.044526	8.039712
309	35	3	-0.683000	7.449708	5.639272	6.771080
310	35	2	0.060000	9.348682	3.999256	7.670340
311	35	2	0.060000	7.859844	3.033748	7.310082
312	35	2	0.060000	8.357729	3.323339	9.022424
313	35	2	0.060000	7.939027	5.758164	8.757268
314	35	2	0.060000	6.450153	4.815451	8.390678
315	35	4	0.418000	6.811693	5.109307	6.225233
316	36	1	-0.180000	2.638661	14.825374	24.083346
317	36	5	0.145000	2.952051	16.285958	24.383920
318	36	3	-0.683000	3.586154	16.402557	25.628311
319	36	2	0.060000	1.988878	14.404397	24.879649
320	36	2	0.060000	3.578803	14.236561	24.029592
321	36	2	0.060000	2.110824	14.748665	23.109454
322	36	2	0.060000	2.003415	16.862536	24.410992
323	36	2	0.060000	3.591634	16.711417	23.577588
324	36	4	0.418000	4.527693	16.116880	25.495018
325	37	1	-0.180000	10.504406	7.934434	6.527010
326	37	5	0.145000	11.475993	6.857234	6.060615
327	37	3	-0.683000	10.786685	5.832707	5.397751
328	37	2	0.060000	9.742668	7.492126	7.203515
329	37	2	0.060000	9.994855	8.393025	5.653221
330	37	2	0.060000	11.057858	8.725382	7.075695
331	37	2	0.060000	11.992137	6.426706	6.944542
332	37	2	0.060000	12.248010	7.304238	5.393959
333	37	4	0.418000	10.567437	6.177406	4.492772
334	38	1	-0.180000	27.074113	25.860209	9.031727
335	38	5	0.145000	27.209199	27.367624	9.208698
336	38	3	-0.683000	26.002770	28.006014	8.890614
337	38	2	0.060000	26.786247	25.624661	7.985214
338	38	2	0.060000	26.300050	25.462768	9.721886
339	38	2	0.060000	28.043595	25.368491	9.258177
340	38	2	0.060000	28.002323	27.743270	8.528308
341	38	2	0.060000	27.512001	27.602148	10.254433
342	38	4	0.418000	25.393755	27.862445	9.661563
343	39	1	-0.180000	21.914235	3.619200	11.345719
344	39	5	0.145000	23.432209	3.598300	11.214631
345	39	3	-0.683000	23.946528	4.899563	11.294525
346	39	2	0.060000	21.472294	4.250140	10.545631
347	39	2	0.060000	21.622307	4.027726	12.336345
348	39	2	0.060000	21.516278	2.586848	11.251681
349	39	2	0.060000	23.705425	3.166117	10.228905
350	39	2	0.060000	23.873635	2.953794	12.008361
351	39	4	0.418000	23.926003	5.154515	12.253928
352	40	1	-0.180000	7.211280	18.651527	10.925708
353	40	5	0.145000	7.138122	20.090337	10.429383
354	40	3	-0.683000	8.423241	20.643161	10.345441
355	40	2	0.060000	7.703261	18.617299	11.920857
356	40	2	0.060000	7.790327	18.029995	10.210267
357	40	2	0.060000	6.186246	18.234238	11.015920
358	40	2	0.060000	6.536993	20.690752	11.144387
359	40	2	0.060000	6.631694	20.125414	9.438145
360	40	4	0.418000	8.840305	20.268856	9.525790
361	41	1	-0.180000	17.283156	19.202652	23.888355
362	41	5	0.145000	17.350414	19.789533	22.483751
363	41	3	-0.683000	18.434832	19.247842	21.780331
364	41	2	0.060000	18.228653	19.410442	24.432779
365	41	2	0.060000	17.125417	18.104548	23.836007
366	41	2	0.060000	16.438601	19.660528	24.445167
367	41	2	0.060000	17.485084	20.889406	22.556061
368	41	2	0.060000	16.396490	19.593398	21.943555
369	41	4	0.418000	18.164244	18.334215	21.501150
370	42	1	-0.180000	13.452535	27.049264	25.684729
371	42	5	0.145000	12.273643	26.537746	24.865932
372	42	3	-0.683000	11.167855	26.306097	25.695247
373	42	2	0.060000	13.717830	26.311229	26.471153
374	42	2	0.060000	13.192954	28.016795	26.164267
375	42	2	0.060000	14.330518	27.201122	25.022123
376	42	2	0.060000	12.559060	25.582903	24.376137
377	42	2	0.060000	12.017552	27.271665	24.068415
378	42	4	0.418000	10.776528	27.195027	25.901500
379	43	1	-0.180000	12.750223	2.785637	10.276347
380	43	5	0.145000	11.322358	2.933396	10.787458
381	43	3	-0.683000	11.322602	3.216909	12.159978
382	43	2	0.060000	13.270027	1.974998	10.829707
383	43	2	0.060000	13.305703	3.737267	10.415264
384	43	2	0.060000	12.736385	2.532536	9.195277
385	43	2	0.060000	10.776418	1.981118	10.619517
386	43	2	0.060000	10.797294	3.736555	10.222219
387	43	4	0.418000	11.568268	4.174539	12.251993
388	44	1	-0.180000	11.976640	18.265330	26.047995
389	44	5	0.145000	11.838680	18.254954	27.565469
390	44	3	-0.683000	11.238763	19.441475	28.008706
391	44	2	0.060000	12.583631	19.138473	25.727490
392	44	2	0.060000	10.973948	18.323617	25.574008
393	44	2	0.060000	12.479194	17.334083	25.711571
394	44	2	0.060000	12.848041	18.173176	28.021087
395	44	2	0.060000	11.242209	17.371189	27.887079
396	44	4	0.418000	10.268784	19.359449	27.813038
397	45	1	-0.180000	7.488455	27.091114	7.106502
398	45	5	0.145000	6.191512	27.070919	6.306879
399	45	3	-0.683000	6.188898	25.994781	5.409042
400	45	2	0.060000	8.357443	27.169989	6.419351
401	45	2	0.060000	7.580901	26.161624	7.707298
402	45	2	0.060000	7.491353	27.963993	7.792824
403	45	2	0.060000	6.105319	28.016591	5.731239
404	45	2	0.060000	5.320043	27.006469	6.997270
405	45	4	0.418000	5.997401	25.179946	5.943127
406	46	1	-0.180000	3.840350	6.950318	7.507780
407	46	5	0.145000	2.586752	7.531528	6.865479
408	46	3	-0.683000	2.931136	8.500495	5.913275
409	46	2	0.060000	4.431229	7.758927	7.987938
410	46	2	0.060000	4.465280	6.448217	6.739136
411	46	2	0.060000	3.554199	6.205750	8.280243
412	46	2	0.060000	1.964092	8.008583	7.651481
413	46	2	0.060000	1.987513	6.718182	6.396827
414	46	4	0.418000	3.244863	8.009515	5.109292
415	47	1	-0.180000	9.741910	3.207038	26.865559
416	47	5	0.145000	11.212248	3.606395	26.843508
417	47	3	-0.683000	11.345297	4.987916	27.038159
418	47	2	0.060000	9.187229	3.755353	26.074852
419	47	2	0.060000	9.296916	3.443861	27.855180
420	47	2	0.060000	9.647664	2.116100	26.681344
421	47	2	0.060000	11.645496	3.341440	25.855996
422	47	2	0.060000	11.770491	3.045411	27.627035
423	47	4	0.418000	11.204662	5.152921	28.007111
424	48	1	-0.180000	7.327373	9.836945	23.205299
425	48	5	0.145000	8.628378	10.611483	23.376592
426	48	3	-0.683000	8.364335	11.919813	23.804077
427	48	2	0.060000	6.673421	10.350491	22.468986
428	48	2	0.060000	6.795786	9.763993	24.177692
429	48	2	0.060000	7.547453	8.812189	22.838687
430	48	2	0.060000	9.156431	10.654287	22.400675
431	48	2	0.060000	9.289552	10.088188	24.104098
432	48	4	0.418000	8.145640	11.863840	24.770987
433	49	1	-0.180000	27.087913	19.534770	13.610736
434	49	5	0.145000	26.885345	19.797010	15.098036
435	49	3	-0.683000	28.000895	20.455006	15.633554
436	49	2	0.060000	28.000180	18.921029	13.453797
437	49	2	0.060000	27.195845	20.495981	13.064954
438	49	2	0.060000	26.211227	18.987690	13.204425
439	49	2	0.060000	26.756484	18.827171	15.623292
440	49	2	0.060000	25.962501	20.400147	15.255630
441	49	4	0.418000	27.934924	21.403739	15.348198
442	50	1	-0.180000	3.103486	15.978699	19.201265
443	50	5	0.145000	3.465469	14.571174	18.743327
444	50	3	-0.683000	2.973779	13.621940	19.649632
445	50	2	0.060000	3.522177	16.168933	20.212228
446	50	2	0.060000	1.999713	16.097120	19.234694
447	50	2	0.060000	3.523040	16.722576	18.491629
448	50	2	0.060000	4.570949	14.478699	18.693847
449	50	2	0.060000	3.057685	14.386351	17.723619
450	50	4	0.418000	1.999209	13.542757	19.476957
451	51	1	-0.180000	13.266741	11.041807	14.095067
452	51	5	0.145000	14.568663	10.683943	14.801323
453	51	3	-0.683000	15.105641	9.505152	14.266254
454	51	2	0.060000	12.536425	10.211735	14.200698
455	51	2	0.060000	13.456046	11.226889	13.016474
456	51	2	0.060000	12.836204	11.960262	14.546777
457	51	2	0.060000	14.364015	10.525259	15.881149
458	51	2	0.060000	15.295281	11.522662	14.707365
459	51	4	0.418000	15.519595	9.750450	13.397723
460	52	1	-0.180000	27.146259	4.366869	15.443067
461	52	5	0.145000	27.122661	4.781709	13.977046
462	52	3	-0.683000	27.026184	6.175475	13.866141
463	52	2	0.060000	26.227046	4.724015	15.953980
464	52	2	0.060000	28.036175	4.799099	15.947727
465	52	2	0.060000	27.193294	3.260014	15.518037
466	52	2	0.060000	26.240123	4.322206	13.484025
467	52	2	0.060000	28.037766	4.410735	13.462057
468	52	4	0.418000	27.928366	6.539218	14.065222
469	53	1	-0.180000	6.668436	13.110926	20.954087
470	53	5	0.145000	6.140356	13.970105	22.096369
471	53	3	-0.683000	7.082129	14.946759	22.447653
472	53	2	0.060000	7.622211	12.626350	21.252480
473	53	2	0.060000	6.843032	13.737872	20.054138
474	53	2	0.060000	5.926687	12.323226	20.704487
475	53	2	0.060000	5.950146	13.323514	22.978880
476	53	2	0.060000	5.176642	14.444077	21.801651
477	53	4	0.418000	7.032057	15.652847	21.751372
478	54	1	-0.180000	17.213025	24.751726	11.408932
479	54	5	0.145000	16.965571	26.231108	11.140490
480	54	3	-0.683000	17.370167	26.565246	9.840934
481	54	2	0.060000	18.290284	24.516330	11.276118
482	54	2	0.060000	16.614436	24.131438	10.708654
483	54	2	0.060000	16.916074	24.505574	12.450177
484	54	2	0.060000	17.553505	26.834512	11.863901
485	54	2	0.060000	15.887725	26.469303	11.288019
486	54	4	0.418000	16.665849	26.226622	9.228444
487	55	1	-0.180000	3.972919	2.980385	6.821613
488	55	5	0.145000	2.453504	3.095109	6.812622
489	55	3	-0.683000	1.961778	2.957232	5.507483
490	55	2	0.060000	4.416792	3.759412	6.166149
491	55	2	0.060000	4.282084	1.977501	6.458165
492	55	2	0.060000	4.352629	3.120283	7.855640
493	55	2	0.060000	2.162706	4.094259	7.200206
494	55	2	0.060000	2.009853	2.322986	7.481391
495	55	4	0.418000	1.996706	1.988657	5.291809
496	56	1	-0.180000	18.201532	11.058873	11.336118
497	56	5	0.145000	18.518800	11.775890	12.642676
498	56	3	-0.683000	19.118298	13.016238	12.385131
499	56	2	0.060000	19.131531	10.914080	10.746478
500	56	2	0.060000	17.479486	11.655240	10.739083
501	56	2	0.060000	17.754218	10.066023	11.553195
502	56	2	0.060000	19.223069	11.155005	13.235629
503	56	2	0.060000	17.588074	11.907743	13.239850
504	56	4	0.418000	18.390972	13.629539	12.100994
505	57	1	-0.180000	10.839678	11.148579	9.333445
506	57	5	0.145000	10.204350	12.305133	10.095420
507	57	3	-0.683000	8.879349	12.493761	9.679508
508	57	2	0.060000	10.811357	11.351439	8.241847
509	57	2	0.060000	10.291683	10.205857	9.544233
510	57	2	0.060000	11.897041	11.027721	9.650209
511	57	2	0.060000	10.778501	13.233373	9.890951
512	57	2	0.060000	10.246202	12.107617	11.190631
513	57	4	0.418000	8.342578	11.776524	10.107668
514	58	1	-0.180000	3.833075	12.344343	27.316105
515	58	5	0.145000	4.975863	11.955415	26.386247
516	58	3	-0.683000	4.635320	10.815519	25.645397
517	58	2	0.060000	3.598708	11.503366	28.002668
518	58	2	0.060000	2.927809	12.595654	26.723829
519	58	2	0.060000	4.125555	13.230294	27.918193
520	58	2	0.060000	5.877585	11.730251	26.993936
521	58	2	0.060000	5.219933	12.804289	25.707944
522	58	4	0.418000	4.014517	11.116144	24.931183
523	59	1	-0.180000	6.883496	26.092285	13.653796
524	59	5	0.145000	7.248243	27.425924	13.013301
525	59	3	-0.683000	7.879500	27.217864	11.779439
526	59	2	0.060000	7.796745	25.476305	13.795512
527	59	2	0.060000	6.167918	25.541447	13.007283
528	59	2	0.060000	6.410958	26.269036	14.642952
529	59	2	0.060000	7.945238	27.971844	13.683567
530	59	2	0.060000	6.334030	28.048797	12.884863
531	59	4	0.418000	7.165411	26.980420	11.131696
532	60	1	-0.180000	4.575547	24.945223	9.200424
533	60	5	0.145000	4.074741	24.017585	10.300672
534	60	3	-0.683000	5.054650	23.068468	10.621838
535	60	2	0.060000	4.840850	24.355400	8.297505
536	60	2	0.060000	5.470870	25.502271	9.549059
537	60	2	0.060000	3.780678	25.673495	8.934406
538	60	2	0.060000	3.167236	23.487020	9.942871
539	60	2	0.060000	3.795234	24.611136	11.200575
540	60	4	0.418000	5.731863	23.536364	11.177112
541	61	1	-0.180000	25.513480	27.066291	20.103164
542	61	5	0.145000	24.399059	26.180577	20.646711
543	61	3	-0.683000	24.764891	25.643336	21.888375
544	61	2	0.060000	26.449968	26.478259	19.999501
545	61	2	0.060000	25.692254	27.919911	20.790789
546	61	2	0.060000	25.224460	27.462285	19.106861
547	61	2	0.060000	24.218842	25.346745	19.935845
548	61	2	0.060000	23.456700	26.767196	20.736653
549	61	4	0.418000	24.657429	26.371020	22.555310
550	62	1	-0.180000	27.340995	9.590087	15.101742
551	62	5	0.145000	27.079060	11.091121	15.114068
552	62	3	-0.683000	26.299398	11.440974	16.224888
553	62	2	0.060000	26.378462	9.036481	15.077461
554	62	2	0.060000	27.909757	9.294466	16.008700
555	62	2	0.060000	27.934196	9.321125	14.202445
556	62	2	0.060000	26.530543	11.371393	14.190129
557	62	2	0.060000	28.044812	11.645632	15.123736
558	62	4	0.418000	26.905548	11.432199	17.011258
559	63	1	-0.180000	14.364493	3.648503	2.876647
560	63	5	0.145000	13.995016	5.126787	2.882146
561	63	3	-0.683000	15.151201	5.918292	2.912906
562	63	2	0.060000	14.966287	3.403784	3.777477
563	63	2	0.060000	14.953318	3.405671	1.966827
564	63	2	0.060000	13.441013	3.031965	2.881782
565	63	2	0.060000	13.388053	5.345795	3.785870
566	63	2	0.060000	13.379384	5.368256	1.986076
567	63	4	0.418000	15.528063	5.906145	1.994374
568	64	1	-0.180000	27.170552	9.851950	10.913962
569	64	5	0.145000	27.034078	8.409149	11.384669
570	64	3	-0.683000	26.094415	8.321039	12.420749
571	64	2	0.060000	27.479811	10.500432	11.760938
572	64	2	0.060000	26.201583	10.215072	10.510607
573	64	2	0.060000	27.938140	9.913546	10.113977
574	64	2	0.060000	28.016751	8.056257	11.762701
575	64	2	0.060000	26.738099	7.757209	10.531660
576	64	4	0.418000	25.198361	8.380038	11.997098
577	65	1	-0.180000	27.059397	27.405046	27.167776
578	65	5	0.145000	26.356812	26.112494	26.770850
579	65	3	-0.683000	25.147272	26.394496	26.121483
580	65	2	0.060000	26.403680	28.005010	27.833822
581	65	2	0.060000	27.303404	28.000329	26.262485
582	65	2	0.060000	28.001060	27.168827	27.706697
583	65	2	0.060000	26.141675	25.520728	27.685517
584	65	2	0.060000	27.020588	25.504814	26.114817
585	65	4	0.418000	25.379770	26.677092	25.198467
586	66	1	-0.180000	23.142174	2.906559	15.264187
587	66	5	0.145000	23.181388	2.786546	16.782714
588	66	3	-0.683000	24.243479	1.962707	17.179503
589	66	2	0.060000	23.031959	1.900779	14.806149
590	66	2	0.060000	24.078213	3.375986	14.894155
591	66	2	0.060000	22.280032	3.537139	14.960801
592	66	2	0.060000	22.229407	2.337040	17.135931
593	66	2	0.060000	23.277293	3.796693	17.241689
594	66	4	0.418000	25.070725	2.505161	17.094165
595	67	1	-0.180000	8.872085	16.004520	13.612888
596	67	5	0.145000	9.784145	14.864020	13.177834
597	67	3	-0.683000	10.225717	15.067066	11.863308
598	67	2	0.060000	8.000550	16.076537	12.928215
599	67	2	0.060000	9.428859	16.965370	13.597942
600	67	2	0.060000	8.505616	15.817948	14.644321
601	67	2	0.060000	9.217848	13.909804	13.221048
602	67	2	0.060000	10.650184	14.783188	13.873316
603	67	4	0.418000	10.935191	15.760386	11.906066
604	68	1	-0.180000	26.916283	15.928965	13.544166